# /etc/ssh/sshd_config.d/quire.conf
#
# Drop this file into sshd_config.d (or append to sshd_config).
# Forces all connections as the git user through the quire dispatch script.
# No port forwarding, agent forwarding, X11, or PTY — these are git/quire
# connections, not interactive shells.

Match User git
    AuthorizedKeysFile /home/git/.ssh/authorized_keys
    ForceCommand /usr/local/bin/quire-dispatch
    AllowTcpForwarding no
    AllowAgentForwarding no
    X11Forwarding no
    PermitTTY no
